LAMMPS data file of nothing at all

0 atoms
2 atom types

-50 50 xlo xhi
-50 50 ylo yhi
-50 50 zlo zhi

Masses

1 12.0
2  1.0

Atoms

